#Commenting for sake

38 atoms
2 atom types

-3.0000000000000000 3.0000000000000000 xlo xhi
-3.0000000000000000 3.0000000000000000 ylo yhi

Masses

1 1.0
2 1.0

Atoms

1 1 0.5000000000000000 0.0000000000000000 0.0 0 0 0
2 2 1.5000000000000000 0.5000000000000000 0.0 0 0 0
3 2 -2.5000000000000000 -2.5000000000000000 0.0 0 0 0
4 2 -1.5000000000000000 -2.5000000000000000 0.0 0 0 0
5 2 -0.5000000000000000 -2.5000000000000000 0.0 0 0 0
6 2 0.5000000000000000 -2.5000000000000000 0.0 0 0 0
7 2 1.5000000000000000 -2.5000000000000000 0.0 0 0 0
8 2 2.5000000000000000 -2.5000000000000000 0.0 0 0 0
9 2 -2.5000000000000000 -1.5000000000000000 0.0 0 0 0
10 2 -1.5000000000000000 -1.5000000000000000 0.0 0 0 0
11 2 -0.5000000000000000 -1.5000000000000000 0.0 0 0 0
12 2 0.5000000000000000 -1.5000000000000000 0.0 0 0 0
13 2 1.5000000000000000 -1.5000000000000000 0.0 0 0 0
14 2 2.5000000000000000 -1.5000000000000000 0.0 0 0 0
15 2 -2.5000000000000000 -0.5000000000000000 0.0 0 0 0
16 2 -1.5000000000000000 -0.5000000000000000 0.0 0 0 0
17 2 -0.5000000000000000 -0.5000000000000000 0.0 0 0 0
18 2 0.5000000000000000 -0.5000000000000000 0.0 0 0 0
19 2 1.5000000000000000 -0.5000000000000000 0.0 0 0 0
20 2 2.5000000000000000 -0.5000000000000000 0.0 0 0 0
21 2 -2.5000000000000000 0.5000000000000000 0.0 0 0 0
22 2 -1.5000000000000000 0.5000000000000000 0.0 0 0 0
23 1 -0.5000000000000000 0.0000000000000000 0.0 0 0 0
24 2 0.5000000000000000 0.5000000000000000 0.0 0 0 0
25 2 -0.5000000000000000 0.5000000000000000 0.0 0 0 0
26 2 2.5000000000000000 0.5000000000000000 0.0 0 0 0
27 2 -2.5000000000000000 1.5000000000000000 0.0 0 0 0
28 2 -1.5000000000000000 1.5000000000000000 0.0 0 0 0
29 2 -0.5000000000000000 1.5000000000000000 0.0 0 0 0
30 2 0.5000000000000000 1.5000000000000000 0.0 0 0 0
31 2 1.5000000000000000 1.5000000000000000 0.0 0 0 0
32 2 2.5000000000000000 1.5000000000000000 0.0 0 0 0
33 2 -2.5000000000000000 2.5000000000000000 0.0 0 0 0
34 2 -1.5000000000000000 2.5000000000000000 0.0 0 0 0
35 2 -0.5000000000000000 2.5000000000000000 0.0 0 0 0
36 2 0.5000000000000000 2.5000000000000000 0.0 0 0 0
37 2 1.5000000000000000 2.5000000000000000 0.0 0 0 0
38 2 2.5000000000000000 2.5000000000000000 0.0 0 0 0

